+ 0.008 /NodeList/0/DeviceList/1/$ns3::CsmaNetDevice/TxQueue/Enqueue ns3::EthernetHeader ( length/type=0x806, source=00:00:00:00:00:01, destination=ff:ff:ff:ff:ff:ff) ns3::ArpHeader (request source mac: 00-06-00:00:00:00:00:01 source ipv4: 10.1.1.1 dest ipv4: 10.1.1.2) Payload (size=18) ns3::EthernetTrailer (fcs=0)
- 0.008 /NodeList/0/DeviceList/1/$ns3::CsmaNetDevice/TxQueue/Dequeue ns3::EthernetHeader ( length/type=0x806, source=00:00:00:00:00:01, destination=ff:ff:ff:ff:ff:ff) ns3::ArpHeader (request source mac: 00-06-00:00:00:00:00:01 source ipv4: 10.1.1.1 dest ipv4: 10.1.1.2) Payload (size=18) ns3::EthernetTrailer (fcs=0)
r 0.0101024 /NodeList/1/DeviceList/1/$ns3::CsmaNetDevice/MacRx ns3::EthernetHeader ( length/type=0x806, source=00:00:00:00:00:01, destination=ff:ff:ff:ff:ff:ff) ns3::ArpHeader (request source mac: 00-06-00:00:00:00:00:01 source ipv4: 10.1.1.1 dest ipv4: 10.1.1.2) Payload (size=18) ns3::EthernetTrailer (fcs=0)
+ 0.0101024 /NodeList/1/DeviceList/1/$ns3::CsmaNetDevice/TxQueue/Enqueue ns3::EthernetHeader ( length/type=0x806, source=00:00:00:00:00:02, destination=00:00:00:00:00:01) ns3::ArpHeader (reply source mac: 00-06-00:00:00:00:00:02 source ipv4: 10.1.1.2 dest mac: 00-06-00:00:00:00:00:01 dest ipv4: 10.1.1.1) Payload (size=18) ns3::EthernetTrailer (fcs=0)
- 0.0101024 /NodeList/1/DeviceList/1/$ns3::CsmaNetDevice/TxQueue/Dequeue ns3::EthernetHeader ( length/type=0x806, source=00:00:00:00:00:02, destination=00:00:00:00:00:01) ns3::ArpHeader (reply source mac: 00-06-00:00:00:00:00:02 source ipv4: 10.1.1.2 dest mac: 00-06-00:00:00:00:00:01 dest ipv4: 10.1.1.1) Payload (size=18) ns3::EthernetTrailer (fcs=0)
r 0.0122058 /NodeList/0/DeviceList/1/$ns3::CsmaNetDevice/MacRx ns3::EthernetHeader ( length/type=0x806, source=00:00:00:00:00:02, destination=00:00:00:00:00:01) ns3::ArpHeader (reply source mac: 00-06-00:00:00:00:00:02 source ipv4: 10.1.1.2 dest mac: 00-06-00:00:00:00:00:01 dest ipv4: 10.1.1.1) Payload (size=18) ns3::EthernetTrailer (fcs=0)
+ 0.0122058 /NodeList/0/DeviceList/1/$ns3::CsmaNetDevice/TxQueue/Enqueue ns3::EthernetHeader ( length/type=0x800, source=00:00:00:00:00:01, destination=00:00:00:00:00:02) ns3::Ipv4Header (tos 0x0 DSCP Default ECN Not-ECT ttl 64 id 0 protocol 17 offset (bytes) 0 flags [none] length: 1052 10.1.1.1 > 10.1.1.2) ns3::UdpHeader (length: 1032 49153 > 4000) Payload (size=1024) ns3::EthernetTrailer (fcs=0)
- 0.0122058 /NodeList/0/DeviceList/1/$ns3::CsmaNetDevice/TxQueue/Dequeue ns3::EthernetHeader ( length/type=0x800, source=00:00:00:00:00:01, destination=00:00:00:00:00:02) ns3::Ipv4Header (tos 0x0 DSCP Default ECN Not-ECT ttl 64 id 0 protocol 17 offset (bytes) 0 flags [none] length: 1052 10.1.1.1 > 10.1.1.2) ns3::UdpHeader (length: 1032 49153 > 4000) Payload (size=1024) ns3::EthernetTrailer (fcs=0)
r 0.0159188 /NodeList/1/DeviceList/1/$ns3::CsmaNetDevice/MacRx ns3::EthernetHeader ( length/type=0x800, source=00:00:00:00:00:01, destination=00:00:00:00:00:02) ns3::Ipv4Header (tos 0x0 DSCP Default ECN Not-ECT ttl 64 id 0 protocol 17 offset (bytes) 0 flags [none] length: 1052 10.1.1.1 > 10.1.1.2) ns3::UdpHeader (length: 1032 49153 > 4000) Payload (size=1024) ns3::EthernetTrailer (fcs=0)
+ 0.0169188 /NodeList/1/DeviceList/1/$ns3::CsmaNetDevice/TxQueue/Enqueue ns3::EthernetHeader ( length/type=0x806, source=00:00:00:00:00:02, destination=ff:ff:ff:ff:ff:ff) ns3::ArpHeader (request source mac: 00-06-00:00:00:00:00:02 source ipv4: 10.1.1.2 dest ipv4: 10.1.1.1) Payload (size=18) ns3::EthernetTrailer (fcs=0)
- 0.0169188 /NodeList/1/DeviceList/1/$ns3::CsmaNetDevice/TxQueue/Dequeue ns3::EthernetHeader ( length/type=0x806, source=00:00:00:00:00:02, destination=ff:ff:ff:ff:ff:ff) ns3::ArpHeader (request source mac: 00-06-00:00:00:00:00:02 source ipv4: 10.1.1.2 dest ipv4: 10.1.1.1) Payload (size=18) ns3::EthernetTrailer (fcs=0)
r 0.0190212 /NodeList/0/DeviceList/1/$ns3::CsmaNetDevice/MacRx ns3::EthernetHeader ( length/type=0x806, source=00:00:00:00:00:02, destination=ff:ff:ff:ff:ff:ff) ns3::ArpHeader (request source mac: 00-06-00:00:00:00:00:02 source ipv4: 10.1.1.2 dest ipv4: 10.1.1.1) Payload (size=18) ns3::EthernetTrailer (fcs=0)
+ 0.0190212 /NodeList/0/DeviceList/1/$ns3::CsmaNetDevice/TxQueue/Enqueue ns3::EthernetHeader ( length/type=0x806, source=00:00:00:00:00:01, destination=00:00:00:00:00:02) ns3::ArpHeader (reply source mac: 00-06-00:00:00:00:00:01 source ipv4: 10.1.1.1 dest mac: 00-06-00:00:00:00:00:02 dest ipv4: 10.1.1.2) Payload (size=18) ns3::EthernetTrailer (fcs=0)
- 0.0190212 /NodeList/0/DeviceList/1/$ns3::CsmaNetDevice/TxQueue/Dequeue ns3::EthernetHeader ( length/type=0x806, source=00:00:00:00:00:01, destination=00:00:00:00:00:02) ns3::ArpHeader (reply source mac: 00-06-00:00:00:00:00:01 source ipv4: 10.1.1.1 dest mac: 00-06-00:00:00:00:00:02 dest ipv4: 10.1.1.2) Payload (size=18) ns3::EthernetTrailer (fcs=0)
r 0.0211246 /NodeList/1/DeviceList/1/$ns3::CsmaNetDevice/MacRx ns3::EthernetHeader ( length/type=0x806, source=00:00:00:00:00:01, destination=00:00:00:00:00:02) ns3::ArpHeader (reply source mac: 00-06-00:00:00:00:00:01 source ipv4: 10.1.1.1 dest mac: 00-06-00:00:00:00:00:02 dest ipv4: 10.1.1.2) Payload (size=18) ns3::EthernetTrailer (fcs=0)
+ 0.0211246 /NodeList/1/DeviceList/1/$ns3::CsmaNetDevice/TxQueue/Enqueue ns3::EthernetHeader ( length/type=0x800, source=00:00:00:00:00:02, destination=00:00:00:00:00:01) ns3::Ipv4Header (tos 0x0 DSCP Default ECN Not-ECT ttl 64 id 0 protocol 1 offset (bytes) 0 flags [none] length: 56 10.1.1.2 > 10.1.1.1) ns3::Icmpv4Header (type=3, code=3) ns3::Icmpv4DestinationUnreachable (tos 0x0 DSCP Default ECN Not-ECT ttl 64 id 0 protocol 17 offset (bytes) 0 flags [none] length: 1052 10.1.1.1 > 10.1.1.2 org data=192 1 15 160 4 8 0 0 ) ns3::EthernetTrailer (fcs=0)
- 0.0211246 /NodeList/1/DeviceList/1/$ns3::CsmaNetDevice/TxQueue/Dequeue ns3::EthernetHeader ( length/type=0x800, source=00:00:00:00:00:02, destination=00:00:00:00:00:01) ns3::Ipv4Header (tos 0x0 DSCP Default ECN Not-ECT ttl 64 id 0 protocol 1 offset (bytes) 0 flags [none] length: 56 10.1.1.2 > 10.1.1.1) ns3::Icmpv4Header (type=3, code=3) ns3::Icmpv4DestinationUnreachable (tos 0x0 DSCP Default ECN Not-ECT ttl 64 id 0 protocol 17 offset (bytes) 0 flags [none] length: 1052 10.1.1.1 > 10.1.1.2 org data=192 1 15 160 4 8 0 0 ) ns3::EthernetTrailer (fcs=0)
r 0.023244 /NodeList/0/DeviceList/1/$ns3::CsmaNetDevice/MacRx ns3::EthernetHeader ( length/type=0x800, source=00:00:00:00:00:02, destination=00:00:00:00:00:01) ns3::Ipv4Header (tos 0x0 DSCP Default ECN Not-ECT ttl 64 id 0 protocol 1 offset (bytes) 0 flags [none] length: 56 10.1.1.2 > 10.1.1.1) ns3::Icmpv4Header (type=3, code=3) ns3::Icmpv4DestinationUnreachable (tos 0x0 DSCP Default ECN Not-ECT ttl 64 id 0 protocol 17 offset (bytes) 0 flags [none] length: 1052 10.1.1.1 > 10.1.1.2 org data=192 1 15 160 4 8 0 0 ) ns3::EthernetTrailer (fcs=0)
+ 0.05 /NodeList/0/DeviceList/1/$ns3::CsmaNetDevice/TxQueue/Enqueue ns3::EthernetHeader ( length/type=0x800, source=00:00:00:00:00:01, destination=00:00:00:00:00:02) ns3::Ipv4Header (tos 0x0 DSCP Default ECN Not-ECT ttl 64 id 1 protocol 17 offset (bytes) 0 flags [none] length: 1052 10.1.1.1 > 10.1.1.2) ns3::UdpHeader (length: 1032 49153 > 4000) Payload (size=1024) ns3::EthernetTrailer (fcs=0)
- 0.05 /NodeList/0/DeviceList/1/$ns3::CsmaNetDevice/TxQueue/Dequeue ns3::EthernetHeader ( length/type=0x800, source=00:00:00:00:00:01, destination=00:00:00:00:00:02) ns3::Ipv4Header (tos 0x0 DSCP Default ECN Not-ECT ttl 64 id 1 protocol 17 offset (bytes) 0 flags [none] length: 1052 10.1.1.1 > 10.1.1.2) ns3::UdpHeader (length: 1032 49153 > 4000) Payload (size=1024) ns3::EthernetTrailer (fcs=0)
r 0.053712 /NodeList/1/DeviceList/1/$ns3::CsmaNetDevice/MacRx ns3::EthernetHeader ( length/type=0x800, source=00:00:00:00:00:01, destination=00:00:00:00:00:02) ns3::Ipv4Header (tos 0x0 DSCP Default ECN Not-ECT ttl 64 id 1 protocol 17 offset (bytes) 0 flags [none] length: 1052 10.1.1.1 > 10.1.1.2) ns3::UdpHeader (length: 1032 49153 > 4000) Payload (size=1024) ns3::EthernetTrailer (fcs=0)
+ 0.053712 /NodeList/1/DeviceList/1/$ns3::CsmaNetDevice/TxQueue/Enqueue ns3::EthernetHeader ( length/type=0x800, source=00:00:00:00:00:02, destination=00:00:00:00:00:01) ns3::Ipv4Header (tos 0x0 DSCP Default ECN Not-ECT ttl 64 id 1 protocol 1 offset (bytes) 0 flags [none] length: 56 10.1.1.2 > 10.1.1.1) ns3::Icmpv4Header (type=3, code=3) ns3::Icmpv4DestinationUnreachable (tos 0x0 DSCP Default ECN Not-ECT ttl 64 id 1 protocol 17 offset (bytes) 0 flags [none] length: 1052 10.1.1.1 > 10.1.1.2 org data=192 1 15 160 4 8 0 0 ) ns3::EthernetTrailer (fcs=0)
- 0.053712 /NodeList/1/DeviceList/1/$ns3::CsmaNetDevice/TxQueue/Dequeue ns3::EthernetHeader ( length/type=0x800, source=00:00:00:00:00:02, destination=00:00:00:00:00:01) ns3::Ipv4Header (tos 0x0 DSCP Default ECN Not-ECT ttl 64 id 1 protocol 1 offset (bytes) 0 flags [none] length: 56 10.1.1.2 > 10.1.1.1) ns3::Icmpv4Header (type=3, code=3) ns3::Icmpv4DestinationUnreachable (tos 0x0 DSCP Default ECN Not-ECT ttl 64 id 1 protocol 17 offset (bytes) 0 flags [none] length: 1052 10.1.1.1 > 10.1.1.2 org data=192 1 15 160 4 8 0 0 ) ns3::EthernetTrailer (fcs=0)
r 0.0558314 /NodeList/0/DeviceList/1/$ns3::CsmaNetDevice/MacRx ns3::EthernetHeader ( length/type=0x800, source=00:00:00:00:00:02, destination=00:00:00:00:00:01) ns3::Ipv4Header (tos 0x0 DSCP Default ECN Not-ECT ttl 64 id 1 protocol 1 offset (bytes) 0 flags [none] length: 56 10.1.1.2 > 10.1.1.1) ns3::Icmpv4Header (type=3, code=3) ns3::Icmpv4DestinationUnreachable (tos 0x0 DSCP Default ECN Not-ECT ttl 64 id 1 protocol 17 offset (bytes) 0 flags [none] length: 1052 10.1.1.1 > 10.1.1.2 org data=192 1 15 160 4 8 0 0 ) ns3::EthernetTrailer (fcs=0)
+ 0.1 /NodeList/0/DeviceList/1/$ns3::CsmaNetDevice/TxQueue/Enqueue ns3::EthernetHeader ( length/type=0x800, source=00:00:00:00:00:01, destination=00:00:00:00:00:02) ns3::Ipv4Header (tos 0x0 DSCP Default ECN Not-ECT ttl 64 id 2 protocol 17 offset (bytes) 0 flags [none] length: 1052 10.1.1.1 > 10.1.1.2) ns3::UdpHeader (length: 1032 49153 > 4000) Payload (size=1024) ns3::EthernetTrailer (fcs=0)
- 0.1 /NodeList/0/DeviceList/1/$ns3::CsmaNetDevice/TxQueue/Dequeue ns3::EthernetHeader ( length/type=0x800, source=00:00:00:00:00:01, destination=00:00:00:00:00:02) ns3::Ipv4Header (tos 0x0 DSCP Default ECN Not-ECT ttl 64 id 2 protocol 17 offset (bytes) 0 flags [none] length: 1052 10.1.1.1 > 10.1.1.2) ns3::UdpHeader (length: 1032 49153 > 4000) Payload (size=1024) ns3::EthernetTrailer (fcs=0)
r 0.103712 /NodeList/1/DeviceList/1/$ns3::CsmaNetDevice/MacRx ns3::EthernetHeader ( length/type=0x800, source=00:00:00:00:00:01, destination=00:00:00:00:00:02) ns3::Ipv4Header (tos 0x0 DSCP Default ECN Not-ECT ttl 64 id 2 protocol 17 offset (bytes) 0 flags [none] length: 1052 10.1.1.1 > 10.1.1.2) ns3::UdpHeader (length: 1032 49153 > 4000) Payload (size=1024) ns3::EthernetTrailer (fcs=0)
+ 0.103712 /NodeList/1/DeviceList/1/$ns3::CsmaNetDevice/TxQueue/Enqueue ns3::EthernetHeader ( length/type=0x800, source=00:00:00:00:00:02, destination=00:00:00:00:00:01) ns3::Ipv4Header (tos 0x0 DSCP Default ECN Not-ECT ttl 64 id 2 protocol 1 offset (bytes) 0 flags [none] length: 56 10.1.1.2 > 10.1.1.1) ns3::Icmpv4Header (type=3, code=3) ns3::Icmpv4DestinationUnreachable (tos 0x0 DSCP Default ECN Not-ECT ttl 64 id 2 protocol 17 offset (bytes) 0 flags [none] length: 1052 10.1.1.1 > 10.1.1.2 org data=192 1 15 160 4 8 0 0 ) ns3::EthernetTrailer (fcs=0)
- 0.103712 /NodeList/1/DeviceList/1/$ns3::CsmaNetDevice/TxQueue/Dequeue ns3::EthernetHeader ( length/type=0x800, source=00:00:00:00:00:02, destination=00:00:00:00:00:01) ns3::Ipv4Header (tos 0x0 DSCP Default ECN Not-ECT ttl 64 id 2 protocol 1 offset (bytes) 0 flags [none] length: 56 10.1.1.2 > 10.1.1.1) ns3::Icmpv4Header (type=3, code=3) ns3::Icmpv4DestinationUnreachable (tos 0x0 DSCP Default ECN Not-ECT ttl 64 id 2 protocol 17 offset (bytes) 0 flags [none] length: 1052 10.1.1.1 > 10.1.1.2 org data=192 1 15 160 4 8 0 0 ) ns3::EthernetTrailer (fcs=0)
r 0.105831 /NodeList/0/DeviceList/1/$ns3::CsmaNetDevice/MacRx ns3::EthernetHeader ( length/type=0x800, source=00:00:00:00:00:02, destination=00:00:00:00:00:01) ns3::Ipv4Header (tos 0x0 DSCP Default ECN Not-ECT ttl 64 id 2 protocol 1 offset (bytes) 0 flags [none] length: 56 10.1.1.2 > 10.1.1.1) ns3::Icmpv4Header (type=3, code=3) ns3::Icmpv4DestinationUnreachable (tos 0x0 DSCP Default ECN Not-ECT ttl 64 id 2 protocol 17 offset (bytes) 0 flags [none] length: 1052 10.1.1.1 > 10.1.1.2 org data=192 1 15 160 4 8 0 0 ) ns3::EthernetTrailer (fcs=0)
+ 0.15 /NodeList/0/DeviceList/1/$ns3::CsmaNetDevice/TxQueue/Enqueue ns3::EthernetHeader ( length/type=0x800, source=00:00:00:00:00:01, destination=00:00:00:00:00:02) ns3::Ipv4Header (tos 0x0 DSCP Default ECN Not-ECT ttl 64 id 3 protocol 17 offset (bytes) 0 flags [none] length: 1052 10.1.1.1 > 10.1.1.2) ns3::UdpHeader (length: 1032 49153 > 4000) Payload (size=1024) ns3::EthernetTrailer (fcs=0)
- 0.15 /NodeList/0/DeviceList/1/$ns3::CsmaNetDevice/TxQueue/Dequeue ns3::EthernetHeader ( length/type=0x800, source=00:00:00:00:00:01, destination=00:00:00:00:00:02) ns3::Ipv4Header (tos 0x0 DSCP Default ECN Not-ECT ttl 64 id 3 protocol 17 offset (bytes) 0 flags [none] length: 1052 10.1.1.1 > 10.1.1.2) ns3::UdpHeader (length: 1032 49153 > 4000) Payload (size=1024) ns3::EthernetTrailer (fcs=0)
r 0.153712 /NodeList/1/DeviceList/1/$ns3::CsmaNetDevice/MacRx ns3::EthernetHeader ( length/type=0x800, source=00:00:00:00:00:01, destination=00:00:00:00:00:02) ns3::Ipv4Header (tos 0x0 DSCP Default ECN Not-ECT ttl 64 id 3 protocol 17 offset (bytes) 0 flags [none] length: 1052 10.1.1.1 > 10.1.1.2) ns3::UdpHeader (length: 1032 49153 > 4000) Payload (size=1024) ns3::EthernetTrailer (fcs=0)
+ 0.153712 /NodeList/1/DeviceList/1/$ns3::CsmaNetDevice/TxQueue/Enqueue ns3::EthernetHeader ( length/type=0x800, source=00:00:00:00:00:02, destination=00:00:00:00:00:01) ns3::Ipv4Header (tos 0x0 DSCP Default ECN Not-ECT ttl 64 id 3 protocol 1 offset (bytes) 0 flags [none] length: 56 10.1.1.2 > 10.1.1.1) ns3::Icmpv4Header (type=3, code=3) ns3::Icmpv4DestinationUnreachable (tos 0x0 DSCP Default ECN Not-ECT ttl 64 id 3 protocol 17 offset (bytes) 0 flags [none] length: 1052 10.1.1.1 > 10.1.1.2 org data=192 1 15 160 4 8 0 0 ) ns3::EthernetTrailer (fcs=0)
- 0.153712 /NodeList/1/DeviceList/1/$ns3::CsmaNetDevice/TxQueue/Dequeue ns3::EthernetHeader ( length/type=0x800, source=00:00:00:00:00:02, destination=00:00:00:00:00:01) ns3::Ipv4Header (tos 0x0 DSCP Default ECN Not-ECT ttl 64 id 3 protocol 1 offset (bytes) 0 flags [none] length: 56 10.1.1.2 > 10.1.1.1) ns3::Icmpv4Header (type=3, code=3) ns3::Icmpv4DestinationUnreachable (tos 0x0 DSCP Default ECN Not-ECT ttl 64 id 3 protocol 17 offset (bytes) 0 flags [none] length: 1052 10.1.1.1 > 10.1.1.2 org data=192 1 15 160 4 8 0 0 ) ns3::EthernetTrailer (fcs=0)
r 0.155831 /NodeList/0/DeviceList/1/$ns3::CsmaNetDevice/MacRx ns3::EthernetHeader ( length/type=0x800, source=00:00:00:00:00:02, destination=00:00:00:00:00:01) ns3::Ipv4Header (tos 0x0 DSCP Default ECN Not-ECT ttl 64 id 3 protocol 1 offset (bytes) 0 flags [none] length: 56 10.1.1.2 > 10.1.1.1) ns3::Icmpv4Header (type=3, code=3) ns3::Icmpv4DestinationUnreachable (tos 0x0 DSCP Default ECN Not-ECT ttl 64 id 3 protocol 17 offset (bytes) 0 flags [none] length: 1052 10.1.1.1 > 10.1.1.2 org data=192 1 15 160 4 8 0 0 ) ns3::EthernetTrailer (fcs=0)
+ 0.2 /NodeList/0/DeviceList/1/$ns3::CsmaNetDevice/TxQueue/Enqueue ns3::EthernetHeader ( length/type=0x800, source=00:00:00:00:00:01, destination=00:00:00:00:00:02) ns3::Ipv4Header (tos 0x0 DSCP Default ECN Not-ECT ttl 64 id 4 protocol 17 offset (bytes) 0 flags [none] length: 1052 10.1.1.1 > 10.1.1.2) ns3::UdpHeader (length: 1032 49153 > 4000) Payload (size=1024) ns3::EthernetTrailer (fcs=0)
- 0.2 /NodeList/0/DeviceList/1/$ns3::CsmaNetDevice/TxQueue/Dequeue ns3::EthernetHeader ( length/type=0x800, source=00:00:00:00:00:01, destination=00:00:00:00:00:02) ns3::Ipv4Header (tos 0x0 DSCP Default ECN Not-ECT ttl 64 id 4 protocol 17 offset (bytes) 0 flags [none] length: 1052 10.1.1.1 > 10.1.1.2) ns3::UdpHeader (length: 1032 49153 > 4000) Payload (size=1024) ns3::EthernetTrailer (fcs=0)
r 0.203712 /NodeList/1/DeviceList/1/$ns3::CsmaNetDevice/MacRx ns3::EthernetHeader ( length/type=0x800, source=00:00:00:00:00:01, destination=00:00:00:00:00:02) ns3::Ipv4Header (tos 0x0 DSCP Default ECN Not-ECT ttl 64 id 4 protocol 17 offset (bytes) 0 flags [none] length: 1052 10.1.1.1 > 10.1.1.2) ns3::UdpHeader (length: 1032 49153 > 4000) Payload (size=1024) ns3::EthernetTrailer (fcs=0)
+ 0.203712 /NodeList/1/DeviceList/1/$ns3::CsmaNetDevice/TxQueue/Enqueue ns3::EthernetHeader ( length/type=0x800, source=00:00:00:00:00:02, destination=00:00:00:00:00:01) ns3::Ipv4Header (tos 0x0 DSCP Default ECN Not-ECT ttl 64 id 4 protocol 1 offset (bytes) 0 flags [none] length: 56 10.1.1.2 > 10.1.1.1) ns3::Icmpv4Header (type=3, code=3) ns3::Icmpv4DestinationUnreachable (tos 0x0 DSCP Default ECN Not-ECT ttl 64 id 4 protocol 17 offset (bytes) 0 flags [none] length: 1052 10.1.1.1 > 10.1.1.2 org data=192 1 15 160 4 8 0 0 ) ns3::EthernetTrailer (fcs=0)
- 0.203712 /NodeList/1/DeviceList/1/$ns3::CsmaNetDevice/TxQueue/Dequeue ns3::EthernetHeader ( length/type=0x800, source=00:00:00:00:00:02, destination=00:00:00:00:00:01) ns3::Ipv4Header (tos 0x0 DSCP Default ECN Not-ECT ttl 64 id 4 protocol 1 offset (bytes) 0 flags [none] length: 56 10.1.1.2 > 10.1.1.1) ns3::Icmpv4Header (type=3, code=3) ns3::Icmpv4DestinationUnreachable (tos 0x0 DSCP Default ECN Not-ECT ttl 64 id 4 protocol 17 offset (bytes) 0 flags [none] length: 1052 10.1.1.1 > 10.1.1.2 org data=192 1 15 160 4 8 0 0 ) ns3::EthernetTrailer (fcs=0)
r 0.205831 /NodeList/0/DeviceList/1/$ns3::CsmaNetDevice/MacRx ns3::EthernetHeader ( length/type=0x800, source=00:00:00:00:00:02, destination=00:00:00:00:00:01) ns3::Ipv4Header (tos 0x0 DSCP Default ECN Not-ECT ttl 64 id 4 protocol 1 offset (bytes) 0 flags [none] length: 56 10.1.1.2 > 10.1.1.1) ns3::Icmpv4Header (type=3, code=3) ns3::Icmpv4DestinationUnreachable (tos 0x0 DSCP Default ECN Not-ECT ttl 64 id 4 protocol 17 offset (bytes) 0 flags [none] length: 1052 10.1.1.1 > 10.1.1.2 org data=192 1 15 160 4 8 0 0 ) ns3::EthernetTrailer (fcs=0)
+ 0.25 /NodeList/0/DeviceList/1/$ns3::CsmaNetDevice/TxQueue/Enqueue ns3::EthernetHeader ( length/type=0x800, source=00:00:00:00:00:01, destination=00:00:00:00:00:02) ns3::Ipv4Header (tos 0x0 DSCP Default ECN Not-ECT ttl 64 id 5 protocol 17 offset (bytes) 0 flags [none] length: 1052 10.1.1.1 > 10.1.1.2) ns3::UdpHeader (length: 1032 49153 > 4000) Payload (size=1024) ns3::EthernetTrailer (fcs=0)
- 0.25 /NodeList/0/DeviceList/1/$ns3::CsmaNetDevice/TxQueue/Dequeue ns3::EthernetHeader ( length/type=0x800, source=00:00:00:00:00:01, destination=00:00:00:00:00:02) ns3::Ipv4Header (tos 0x0 DSCP Default ECN Not-ECT ttl 64 id 5 protocol 17 offset (bytes) 0 flags [none] length: 1052 10.1.1.1 > 10.1.1.2) ns3::UdpHeader (length: 1032 49153 > 4000) Payload (size=1024) ns3::EthernetTrailer (fcs=0)
r 0.253712 /NodeList/1/DeviceList/1/$ns3::CsmaNetDevice/MacRx ns3::EthernetHeader ( length/type=0x800, source=00:00:00:00:00:01, destination=00:00:00:00:00:02) ns3::Ipv4Header (tos 0x0 DSCP Default ECN Not-ECT ttl 64 id 5 protocol 17 offset (bytes) 0 flags [none] length: 1052 10.1.1.1 > 10.1.1.2) ns3::UdpHeader (length: 1032 49153 > 4000) Payload (size=1024) ns3::EthernetTrailer (fcs=0)
+ 0.253712 /NodeList/1/DeviceList/1/$ns3::CsmaNetDevice/TxQueue/Enqueue ns3::EthernetHeader ( length/type=0x800, source=00:00:00:00:00:02, destination=00:00:00:00:00:01) ns3::Ipv4Header (tos 0x0 DSCP Default ECN Not-ECT ttl 64 id 5 protocol 1 offset (bytes) 0 flags [none] length: 56 10.1.1.2 > 10.1.1.1) ns3::Icmpv4Header (type=3, code=3) ns3::Icmpv4DestinationUnreachable (tos 0x0 DSCP Default ECN Not-ECT ttl 64 id 5 protocol 17 offset (bytes) 0 flags [none] length: 1052 10.1.1.1 > 10.1.1.2 org data=192 1 15 160 4 8 0 0 ) ns3::EthernetTrailer (fcs=0)
- 0.253712 /NodeList/1/DeviceList/1/$ns3::CsmaNetDevice/TxQueue/Dequeue ns3::EthernetHeader ( length/type=0x800, source=00:00:00:00:00:02, destination=00:00:00:00:00:01) ns3::Ipv4Header (tos 0x0 DSCP Default ECN Not-ECT ttl 64 id 5 protocol 1 offset (bytes) 0 flags [none] length: 56 10.1.1.2 > 10.1.1.1) ns3::Icmpv4Header (type=3, code=3) ns3::Icmpv4DestinationUnreachable (tos 0x0 DSCP Default ECN Not-ECT ttl 64 id 5 protocol 17 offset (bytes) 0 flags [none] length: 1052 10.1.1.1 > 10.1.1.2 org data=192 1 15 160 4 8 0 0 ) ns3::EthernetTrailer (fcs=0)
r 0.255831 /NodeList/0/DeviceList/1/$ns3::CsmaNetDevice/MacRx ns3::EthernetHeader ( length/type=0x800, source=00:00:00:00:00:02, destination=00:00:00:00:00:01) ns3::Ipv4Header (tos 0x0 DSCP Default ECN Not-ECT ttl 64 id 5 protocol 1 offset (bytes) 0 flags [none] length: 56 10.1.1.2 > 10.1.1.1) ns3::Icmpv4Header (type=3, code=3) ns3::Icmpv4DestinationUnreachable (tos 0x0 DSCP Default ECN Not-ECT ttl 64 id 5 protocol 17 offset (bytes) 0 flags [none] length: 1052 10.1.1.1 > 10.1.1.2 org data=192 1 15 160 4 8 0 0 ) ns3::EthernetTrailer (fcs=0)
+ 0.3 /NodeList/0/DeviceList/1/$ns3::CsmaNetDevice/TxQueue/Enqueue ns3::EthernetHeader ( length/type=0x800, source=00:00:00:00:00:01, destination=00:00:00:00:00:02) ns3::Ipv4Header (tos 0x0 DSCP Default ECN Not-ECT ttl 64 id 6 protocol 17 offset (bytes) 0 flags [none] length: 1052 10.1.1.1 > 10.1.1.2) ns3::UdpHeader (length: 1032 49153 > 4000) Payload (size=1024) ns3::EthernetTrailer (fcs=0)
- 0.3 /NodeList/0/DeviceList/1/$ns3::CsmaNetDevice/TxQueue/Dequeue ns3::EthernetHeader ( length/type=0x800, source=00:00:00:00:00:01, destination=00:00:00:00:00:02) ns3::Ipv4Header (tos 0x0 DSCP Default ECN Not-ECT ttl 64 id 6 protocol 17 offset (bytes) 0 flags [none] length: 1052 10.1.1.1 > 10.1.1.2) ns3::UdpHeader (length: 1032 49153 > 4000) Payload (size=1024) ns3::EthernetTrailer (fcs=0)
r 0.303712 /NodeList/1/DeviceList/1/$ns3::CsmaNetDevice/MacRx ns3::EthernetHeader ( length/type=0x800, source=00:00:00:00:00:01, destination=00:00:00:00:00:02) ns3::Ipv4Header (tos 0x0 DSCP Default ECN Not-ECT ttl 64 id 6 protocol 17 offset (bytes) 0 flags [none] length: 1052 10.1.1.1 > 10.1.1.2) ns3::UdpHeader (length: 1032 49153 > 4000) Payload (size=1024) ns3::EthernetTrailer (fcs=0)
+ 0.303712 /NodeList/1/DeviceList/1/$ns3::CsmaNetDevice/TxQueue/Enqueue ns3::EthernetHeader ( length/type=0x800, source=00:00:00:00:00:02, destination=00:00:00:00:00:01) ns3::Ipv4Header (tos 0x0 DSCP Default ECN Not-ECT ttl 64 id 6 protocol 1 offset (bytes) 0 flags [none] length: 56 10.1.1.2 > 10.1.1.1) ns3::Icmpv4Header (type=3, code=3) ns3::Icmpv4DestinationUnreachable (tos 0x0 DSCP Default ECN Not-ECT ttl 64 id 6 protocol 17 offset (bytes) 0 flags [none] length: 1052 10.1.1.1 > 10.1.1.2 org data=192 1 15 160 4 8 0 0 ) ns3::EthernetTrailer (fcs=0)
- 0.303712 /NodeList/1/DeviceList/1/$ns3::CsmaNetDevice/TxQueue/Dequeue ns3::EthernetHeader ( length/type=0x800, source=00:00:00:00:00:02, destination=00:00:00:00:00:01) ns3::Ipv4Header (tos 0x0 DSCP Default ECN Not-ECT ttl 64 id 6 protocol 1 offset (bytes) 0 flags [none] length: 56 10.1.1.2 > 10.1.1.1) ns3::Icmpv4Header (type=3, code=3) ns3::Icmpv4DestinationUnreachable (tos 0x0 DSCP Default ECN Not-ECT ttl 64 id 6 protocol 17 offset (bytes) 0 flags [none] length: 1052 10.1.1.1 > 10.1.1.2 org data=192 1 15 160 4 8 0 0 ) ns3::EthernetTrailer (fcs=0)
r 0.305831 /NodeList/0/DeviceList/1/$ns3::CsmaNetDevice/MacRx ns3::EthernetHeader ( length/type=0x800, source=00:00:00:00:00:02, destination=00:00:00:00:00:01) ns3::Ipv4Header (tos 0x0 DSCP Default ECN Not-ECT ttl 64 id 6 protocol 1 offset (bytes) 0 flags [none] length: 56 10.1.1.2 > 10.1.1.1) ns3::Icmpv4Header (type=3, code=3) ns3::Icmpv4DestinationUnreachable (tos 0x0 DSCP Default ECN Not-ECT ttl 64 id 6 protocol 17 offset (bytes) 0 flags [none] length: 1052 10.1.1.1 > 10.1.1.2 org data=192 1 15 160 4 8 0 0 ) ns3::EthernetTrailer (fcs=0)
+ 0.35 /NodeList/0/DeviceList/1/$ns3::CsmaNetDevice/TxQueue/Enqueue ns3::EthernetHeader ( length/type=0x800, source=00:00:00:00:00:01, destination=00:00:00:00:00:02) ns3::Ipv4Header (tos 0x0 DSCP Default ECN Not-ECT ttl 64 id 7 protocol 17 offset (bytes) 0 flags [none] length: 1052 10.1.1.1 > 10.1.1.2) ns3::UdpHeader (length: 1032 49153 > 4000) Payload (size=1024) ns3::EthernetTrailer (fcs=0)
- 0.35 /NodeList/0/DeviceList/1/$ns3::CsmaNetDevice/TxQueue/Dequeue ns3::EthernetHeader ( length/type=0x800, source=00:00:00:00:00:01, destination=00:00:00:00:00:02) ns3::Ipv4Header (tos 0x0 DSCP Default ECN Not-ECT ttl 64 id 7 protocol 17 offset (bytes) 0 flags [none] length: 1052 10.1.1.1 > 10.1.1.2) ns3::UdpHeader (length: 1032 49153 > 4000) Payload (size=1024) ns3::EthernetTrailer (fcs=0)
r 0.353712 /NodeList/1/DeviceList/1/$ns3::CsmaNetDevice/MacRx ns3::EthernetHeader ( length/type=0x800, source=00:00:00:00:00:01, destination=00:00:00:00:00:02) ns3::Ipv4Header (tos 0x0 DSCP Default ECN Not-ECT ttl 64 id 7 protocol 17 offset (bytes) 0 flags [none] length: 1052 10.1.1.1 > 10.1.1.2) ns3::UdpHeader (length: 1032 49153 > 4000) Payload (size=1024) ns3::EthernetTrailer (fcs=0)
+ 0.353712 /NodeList/1/DeviceList/1/$ns3::CsmaNetDevice/TxQueue/Enqueue ns3::EthernetHeader ( length/type=0x800, source=00:00:00:00:00:02, destination=00:00:00:00:00:01) ns3::Ipv4Header (tos 0x0 DSCP Default ECN Not-ECT ttl 64 id 7 protocol 1 offset (bytes) 0 flags [none] length: 56 10.1.1.2 > 10.1.1.1) ns3::Icmpv4Header (type=3, code=3) ns3::Icmpv4DestinationUnreachable (tos 0x0 DSCP Default ECN Not-ECT ttl 64 id 7 protocol 17 offset (bytes) 0 flags [none] length: 1052 10.1.1.1 > 10.1.1.2 org data=192 1 15 160 4 8 0 0 ) ns3::EthernetTrailer (fcs=0)
- 0.353712 /NodeList/1/DeviceList/1/$ns3::CsmaNetDevice/TxQueue/Dequeue ns3::EthernetHeader ( length/type=0x800, source=00:00:00:00:00:02, destination=00:00:00:00:00:01) ns3::Ipv4Header (tos 0x0 DSCP Default ECN Not-ECT ttl 64 id 7 protocol 1 offset (bytes) 0 flags [none] length: 56 10.1.1.2 > 10.1.1.1) ns3::Icmpv4Header (type=3, code=3) ns3::Icmpv4DestinationUnreachable (tos 0x0 DSCP Default ECN Not-ECT ttl 64 id 7 protocol 17 offset (bytes) 0 flags [none] length: 1052 10.1.1.1 > 10.1.1.2 org data=192 1 15 160 4 8 0 0 ) ns3::EthernetTrailer (fcs=0)
r 0.355831 /NodeList/0/DeviceList/1/$ns3::CsmaNetDevice/MacRx ns3::EthernetHeader ( length/type=0x800, source=00:00:00:00:00:02, destination=00:00:00:00:00:01) ns3::Ipv4Header (tos 0x0 DSCP Default ECN Not-ECT ttl 64 id 7 protocol 1 offset (bytes) 0 flags [none] length: 56 10.1.1.2 > 10.1.1.1) ns3::Icmpv4Header (type=3, code=3) ns3::Icmpv4DestinationUnreachable (tos 0x0 DSCP Default ECN Not-ECT ttl 64 id 7 protocol 17 offset (bytes) 0 flags [none] length: 1052 10.1.1.1 > 10.1.1.2 org data=192 1 15 160 4 8 0 0 ) ns3::EthernetTrailer (fcs=0)
+ 0.4 /NodeList/0/DeviceList/1/$ns3::CsmaNetDevice/TxQueue/Enqueue ns3::EthernetHeader ( length/type=0x800, source=00:00:00:00:00:01, destination=00:00:00:00:00:02) ns3::Ipv4Header (tos 0x0 DSCP Default ECN Not-ECT ttl 64 id 8 protocol 17 offset (bytes) 0 flags [none] length: 1052 10.1.1.1 > 10.1.1.2) ns3::UdpHeader (length: 1032 49153 > 4000) Payload (size=1024) ns3::EthernetTrailer (fcs=0)
- 0.4 /NodeList/0/DeviceList/1/$ns3::CsmaNetDevice/TxQueue/Dequeue ns3::EthernetHeader ( length/type=0x800, source=00:00:00:00:00:01, destination=00:00:00:00:00:02) ns3::Ipv4Header (tos 0x0 DSCP Default ECN Not-ECT ttl 64 id 8 protocol 17 offset (bytes) 0 flags [none] length: 1052 10.1.1.1 > 10.1.1.2) ns3::UdpHeader (length: 1032 49153 > 4000) Payload (size=1024) ns3::EthernetTrailer (fcs=0)
r 0.403712 /NodeList/1/DeviceList/1/$ns3::CsmaNetDevice/MacRx ns3::EthernetHeader ( length/type=0x800, source=00:00:00:00:00:01, destination=00:00:00:00:00:02) ns3::Ipv4Header (tos 0x0 DSCP Default ECN Not-ECT ttl 64 id 8 protocol 17 offset (bytes) 0 flags [none] length: 1052 10.1.1.1 > 10.1.1.2) ns3::UdpHeader (length: 1032 49153 > 4000) Payload (size=1024) ns3::EthernetTrailer (fcs=0)
+ 0.403712 /NodeList/1/DeviceList/1/$ns3::CsmaNetDevice/TxQueue/Enqueue ns3::EthernetHeader ( length/type=0x800, source=00:00:00:00:00:02, destination=00:00:00:00:00:01) ns3::Ipv4Header (tos 0x0 DSCP Default ECN Not-ECT ttl 64 id 8 protocol 1 offset (bytes) 0 flags [none] length: 56 10.1.1.2 > 10.1.1.1) ns3::Icmpv4Header (type=3, code=3) ns3::Icmpv4DestinationUnreachable (tos 0x0 DSCP Default ECN Not-ECT ttl 64 id 8 protocol 17 offset (bytes) 0 flags [none] length: 1052 10.1.1.1 > 10.1.1.2 org data=192 1 15 160 4 8 0 0 ) ns3::EthernetTrailer (fcs=0)
- 0.403712 /NodeList/1/DeviceList/1/$ns3::CsmaNetDevice/TxQueue/Dequeue ns3::EthernetHeader ( length/type=0x800, source=00:00:00:00:00:02, destination=00:00:00:00:00:01) ns3::Ipv4Header (tos 0x0 DSCP Default ECN Not-ECT ttl 64 id 8 protocol 1 offset (bytes) 0 flags [none] length: 56 10.1.1.2 > 10.1.1.1) ns3::Icmpv4Header (type=3, code=3) ns3::Icmpv4DestinationUnreachable (tos 0x0 DSCP Default ECN Not-ECT ttl 64 id 8 protocol 17 offset (bytes) 0 flags [none] length: 1052 10.1.1.1 > 10.1.1.2 org data=192 1 15 160 4 8 0 0 ) ns3::EthernetTrailer (fcs=0)
r 0.405831 /NodeList/0/DeviceList/1/$ns3::CsmaNetDevice/MacRx ns3::EthernetHeader ( length/type=0x800, source=00:00:00:00:00:02, destination=00:00:00:00:00:01) ns3::Ipv4Header (tos 0x0 DSCP Default ECN Not-ECT ttl 64 id 8 protocol 1 offset (bytes) 0 flags [none] length: 56 10.1.1.2 > 10.1.1.1) ns3::Icmpv4Header (type=3, code=3) ns3::Icmpv4DestinationUnreachable (tos 0x0 DSCP Default ECN Not-ECT ttl 64 id 8 protocol 17 offset (bytes) 0 flags [none] length: 1052 10.1.1.1 > 10.1.1.2 org data=192 1 15 160 4 8 0 0 ) ns3::EthernetTrailer (fcs=0)
+ 0.45 /NodeList/0/DeviceList/1/$ns3::CsmaNetDevice/TxQueue/Enqueue ns3::EthernetHeader ( length/type=0x800, source=00:00:00:00:00:01, destination=00:00:00:00:00:02) ns3::Ipv4Header (tos 0x0 DSCP Default ECN Not-ECT ttl 64 id 9 protocol 17 offset (bytes) 0 flags [none] length: 1052 10.1.1.1 > 10.1.1.2) ns3::UdpHeader (length: 1032 49153 > 4000) Payload (size=1024) ns3::EthernetTrailer (fcs=0)